PROCAR lm decomposed
# of k-points:    1         # of bands:   96         # of ions:   47

 k-point     1 :    0.00000000 0.00000000 0.00000000     weight = 1.00000000

band     1 # energy  -30.46259241 # occ.  1.00000000
 
ion      s     py     pz     px    dxy    dyz    dz2    dxz  x2-y2    tot
    1  0.000  0.000  0.000  0.000  0.000  0.000  0.000  0.000  0.000  0.000
    2  0.000  0.000  0.000  0.000  0.000  0.000  0.000  0.000  0.000  0.000
    3  0.000  0.000  0.000  0.000  0.000  0.000  0.000  0.000  0.000  0.000
    4  0.000  0.000  0.000  0.000  0.000  0.000  0.000  0.000  0.000  0.000
    5  0.000  0.000  0.000  0.000  0.000  0.000  0.000  0.000  0.000  0.000
    6  0.000  0.000  0.000  0.000  0.000  0.000  0.000  0.000  0.000  0.000
    7  0.000  0.000  0.000  0.000  0.000  0.000  0.000  0.000  0.000  0.000
    8  0.000  0.000  0.000  0.000  0.000  0.000  0.000  0.000  0.000  0.000
    9  0.000  0.000  0.000  0.000  0.000  0.000  0.000  0.000  0.000  0.000
   10  0.000  0.000  0.000  0.000  0.000  0.000  0.000  0.000  0.000  0.000
   11  0.000  0.000  0.000  0.000  0.000  0.000  0.000  0.000  0.000  0.000
   12  0.000  0.000  0.000  0.000  0.000  0.000  0.000  0.000  0.000  0.000
   13  0.000  0.000  0.000  0.000  0.000  0.000  0.000  0.000  0.000  0.000
   14  0.000  0.000  0.000  0.000  0.000  0.000  0.000  0.000  0.000  0.000
   15  0.000  0.000  0.000  0.000  0.000  0.000  0.000  0.000  0.000  0.000
   16  0.000  0.000  0.000  0.000  0.000  0.000  0.000  0.000  0.000  0.000
   17  0.000  0.000  0.000  0.000  0.000  0.000  0.000  0.000  0.000  0.000
   18  0.001  0.000  0.000  0.000  0.000  0.000  0.000  0.000  0.000  0.001
   19  0.000  0.000  0.000  0.000  0.000  0.000  0.000  0.000  0.000  0.000
   20  0.000  0.000  0.000  0.000  0.000  0.000  0.000  0.000  0.000  0.000
   21  0.050  0.000  0.012  0.019  0.000  0.000  0.000  0.000  0.000  0.081
   22  0.001  0.000  0.000  0.000  0.000  0.000  0.000  0.000  0.000  0.001
   23  0.000  0.000  0.000  0.000  0.000  0.000  0.000  0.000  0.000  0.000
   24  0.000  0.000  0.000  0.000  0.000  0.000  0.000  0.000  0.000  0.000
   25  0.000  0.000  0.000  0.000  0.000  0.000  0.000  0.000  0.000  0.000
   26  0.000  0.000  0.000  0.000  0.000  0.000  0.000  0.000  0.000  0.000
   27  0.000  0.000  0.000  0.000  0.000  0.000  0.000  0.000  0.000  0.000
   28  0.000  0.000  0.000  0.000  0.000  0.000  0.000  0.000  0.000  0.000
   29  0.000  0.000  0.000  0.000  0.000  0.000  0.000  0.000  0.000  0.000
   30  0.000  0.000  0.000  0.000  0.000  0.000  0.000  0.000  0.000  0.000
   31  0.000  0.000  0.000  0.000  0.000  0.000  0.000  0.000  0.000  0.000
   32  0.000  0.000  0.000  0.000  0.000  0.000  0.000  0.000  0.000  0.000
   33  0.000  0.000  0.000  0.000  0.000  0.000  0.000  0.000  0.000  0.000
   34  0.000  0.000  0.000  0.000  0.000  0.000  0.000  0.000  0.000  0.000
   35  0.000  0.000  0.000  0.000  0.000  0.000  0.000  0.000  0.000  0.000
   36  0.000  0.000  0.000  0.000  0.000  0.000  0.000  0.000  0.000  0.000
   37  0.000  0.000  0.000  0.000  0.000  0.000  0.000  0.000  0.000  0.000
   38  0.000  0.000  0.000  0.000  0.000  0.000  0.000  0.000  0.000  0.000
   39  0.000  0.000  0.000  0.000  0.000  0.000  0.000  0.000  0.000  0.000
   40  0.000  0.000  0.000  0.000  0.000  0.000  0.000  0.000  0.000  0.000
   41  0.000  0.000  0.000  0.000  0.000  0.000  0.000  0.000  0.000  0.000
   42  0.000  0.000  0.000  0.000  0.000  0.000  0.000  0.000  0.000  0.000
   43  0.000  0.000  0.000  0.000  0.000  0.000  0.000  0.000  0.000  0.000
   44  0.000  0.000  0.000  0.000  0.000  0.000  0.000  0.000  0.000  0.000
   45  0.000  0.000  0.000  0.000  0.000  0.000  0.000  0.000  0.000  0.000
   46  0.000  0.000  0.000  0.000  0.000  0.000  0.000  0.000  0.000  0.000
   47  0.782  0.000  0.010  0.017  0.000  0.000  0.000  0.000  0.000  0.809
tot    0.833  0.001  0.023  0.037  0.000  0.000  0.000  0.000  0.000  0.893
 
band     2 # energy  -30.44139202 # occ.  1.00000000
 
ion      s     py     pz     px    dxy    dyz    dz2    dxz  x2-y2    tot
    1  0.000  0.000  0.000  0.000  0.000  0.000  0.000  0.000  0.000  0.000
    2  0.000  0.000  0.000  0.000  0.000  0.000  0.000  0.000  0.000  0.000
    3  0.000  0.000  0.000  0.000  0.000  0.000  0.000  0.000  0.000  0.000
    4  0.000  0.000  0.000  0.000  0.000  0.000  0.000  0.000  0.000  0.000
    5  0.000  0.000  0.000  0.000  0.000  0.000  0.000  0.000  0.000  0.000
    6  0.000  0.000  0.000  0.000  0.000  0.000  0.000  0.000  0.000  0.000
    7  0.000  0.000  0.000  0.000  0.000  0.000  0.000  0.000  0.000  0.000
    8  0.000  0.000  0.000  0.000  0.000  0.000  0.000  0.000  0.000  0.000
    9  0.000  0.000  0.000  0.000  0.000  0.000  0.000  0.000  0.000  0.000
   10  0.000  0.000  0.000  0.000  0.000  0.000  0.000  0.000  0.000  0.000
   11  0.000  0.000  0.000  0.000  0.000  0.000  0.000  0.000  0.000  0.000
   12  0.000  0.000  0.000  0.000  0.000  0.000  0.000  0.000  0.000  0.000
   13  0.000  0.000  0.000  0.000  0.000  0.000  0.000  0.000  0.000  0.000
   14  0.049  0.020  0.011  0.000  0.000  0.000  0.000  0.000  0.000  0.081
   15  0.000  0.000  0.000  0.000  0.000  0.000  0.000  0.000  0.000  0.000
   16  0.001  0.000  0.000  0.000  0.000  0.000  0.000  0.000  0.000  0.001
   17  0.000  0.000  0.000  0.000  0.000  0.000  0.000  0.000  0.000  0.000
   18  0.000  0.000  0.000  0.000  0.000  0.000  0.000  0.000  0.000  0.000
   19  0.000  0.000  0.000  0.000  0.000  0.000  0.000  0.000  0.000  0.000
   20  0.001  0.000  0.000  0.000  0.000  0.000  0.000  0.000  0.000  0.001
   21  0.000  0.000  0.000  0.000  0.000  0.000  0.000  0.000  0.000  0.000
   22  0.000  0.000  0.000  0.000  0.000  0.000  0.000  0.000  0.000  0.000
   23  0.000  0.000  0.000  0.000  0.000  0.000  0.000  0.000  0.000  0.000
   24  0.000  0.000  0.000  0.000  0.000  0.000  0.000  0.000  0.000  0.000
   25  0.000  0.000  0.000  0.000  0.000  0.000  0.000  0.000  0.000  0.000
   26  0.000  0.000  0.000  0.000  0.000  0.000  0.000  0.000  0.000  0.000
   27  0.000  0.000  0.000  0.000  0.000  0.000  0.000  0.000  0.000  0.000
   28  0.000  0.000  0.000  0.000  0.000  0.000  0.000  0.000  0.000  0.000
   29  0.000  0.000  0.000  0.000  0.000  0.000  0.000  0.000  0.000  0.000
   30  0.000  0.000  0.000  0.000  0.000  0.000  0.000  0.000  0.000  0.000
   31  0.000  0.000  0.000  0.000  0.000  0.000  0.000  0.000  0.000  0.000
   32  0.000  0.000  0.000  0.000  0.000  0.000  0.000  0.000  0.000  0.000
   33  0.000  0.000  0.000  0.000  0.000  0.000  0.000  0.000  0.000  0.000
   34  0.000  0.000  0.000  0.000  0.000  0.000  0.000  0.000  0.000  0.000
   35  0.000  0.000  0.000  0.000  0.000  0.000  0.000  0.000  0.000  0.000
   36  0.000  0.000  0.000  0.000  0.000  0.000  0.000  0.000  0.000  0.000
   37  0.000  0.000  0.000  0.000  0.000  0.000  0.000  0.000  0.000  0.000
   38  0.000  0.000  0.000  0.000  0.000  0.000  0.000  0.000  0.000  0.000
   39  0.000  0.000  0.000  0.000  0.000  0.000  0.000  0.000  0.000  0.000
   40  0.000  0.000  0.000  0.000  0.000  0.000  0.000  0.000  0.000  0.000
   41  0.000  0.000  0.000  0.000  0.000  0.000  0.000  0.000  0.000  0.000
   42  0.000  0.000  0.000  0.000  0.000  0.000  0.000  0.000  0.000  0.000
   43  0.000  0.000  0.000  0.000  0.000  0.000  0.000  0.000  0.000  0.000
   44  0.000  0.000  0.000  0.000  0.000  0.000  0.000  0.000  0.000  0.000
   45  0.000  0.000  0.000  0.000  0.000  0.000  0.000  0.000  0.000  0.000
   46  0.782  0.018  0.010  0.000  0.000  0.000  0.000  0.000  0.000  0.809
   47  0.000  0.000  0.000  0.000  0.000  0.000  0.000  0.000  0.000  0.000
tot    0.833  0.038  0.021  0.000  0.000  0.000  0.000  0.000  0.000  0.893
 
band     3 # energy  -30.43534647 # occ.  1.00000000
 
ion      s     py     pz     px    dxy    dyz    dz2    dxz  x2-y2    tot
    1  0.000  0.000  0.000  0.000  0.000  0.000  0.000  0.000  0.000  0.000
    2  0.000  0.000  0.000  0.000  0.000  0.000  0.000  0.000  0.000  0.000
    3  0.000  0.000  0.000  0.000  0.000  0.000  0.000  0.000  0.000  0.000
    4  0.000  0.000  0.000  0.000  0.000  0.000  0.000  0.000  0.000  0.000
    5  0.000  0.000  0.000  0.000  0.000  0.000  0.000  0.000  0.000  0.000
    6  0.000  0.000  0.000  0.000  0.000  0.000  0.000  0.000  0.000  0.000
    7  0.050  0.000  0.011  0.020  0.000  0.000  0.000  0.000  0.000  0.081
    8  0.000  0.000  0.000  0.000  0.000  0.000  0.000  0.000  0.000  0.000
    9  0.000  0.000  0.000  0.000  0.000  0.000  0.000  0.000  0.000  0.000
   10  0.000  0.000  0.000  0.000  0.000  0.000  0.000  0.000  0.000  0.000
   11  0.000  0.000  0.000  0.000  0.000  0.000  0.000  0.000  0.000  0.000
   12  0.001  0.000  0.000  0.000  0.000  0.000  0.000  0.000  0.000  0.001
   13  0.000  0.000  0.000  0.000  0.000  0.000  0.000  0.000  0.000  0.000
   14  0.000  0.000  0.000  0.000  0.000  0.000  0.000  0.000  0.000  0.000
   15  0.000  0.000  0.000  0.000  0.000  0.000  0.000  0.000  0.000  0.000
   16  0.000  0.000  0.000  0.000  0.000  0.000  0.000  0.000  0.000  0.000
   17  0.001  0.000  0.000  0.000  0.000  0.000  0.000  0.000  0.000  0.001
   18  0.000  0.000  0.000  0.000  0.000  0.000  0.000  0.000  0.000  0.000
   19  0.000  0.000  0.000  0.000  0.000  0.000  0.000  0.000  0.000  0.000
   20  0.000  0.000  0.000  0.000  0.000  0.000  0.000  0.000  0.000  0.000
   21  0.000  0.000  0.000  0.000  0.000  0.000  0.000  0.000  0.000  0.000
   22  0.000  0.000  0.000  0.000  0.000  0.000  0.000  0.000  0.000  0.000
   23  0.000  0.000  0.000  0.000  0.000  0.000  0.000  0.000  0.000  0.000
   24  0.000  0.000  0.000  0.000  0.000  0.000  0.000  0.000  0.000  0.000
   25  0.000  0.000  0.000  0.000  0.000  0.000  0.000  0.000  0.000  0.000
   26  0.000  0.000  0.000  0.000  0.000  0.000  0.000  0.000  0.000  0.000
   27  0.000  0.000  0.000  0.000  0.000  0.000  0.000  0.000  0.000  0.000
   28  0.000  0.000  0.000  0.000  0.000  0.000  0.000  0.000  0.000  0.000
   29  0.000  0.000  0.000  0.000  0.000  0.000  0.000  0.000  0.000  0.000
   30  0.000  0.000  0.000  0.000  0.000  0.000  0.000  0.000  0.000  0.000
   31  0.000  0.000  0.000  0.000  0.000  0.000  0.000  0.000  0.000  0.000
   32  0.000  0.000  0.000  0.000  0.000  0.000  0.000  0.000  0.000  0.000
   33  0.000  0.000  0.000  0.000  0.000  0.000  0.000  0.000  0.000  0.000
   34  0.000  0.000  0.000  0.000  0.000  0.000  0.000  0.000  0.000  0.000
   35  0.000  0.000  0.000  0.000  0.000  0.000  0.000  0.000  0.000  0.000
   36  0.000  0.000  0.000  0.000  0.000  0.000  0.000  0.000  0.000  0.000
   37  0.000  0.000  0.000  0.000  0.000  0.000  0.000  0.000  0.000  0.000
   38  0.000  0.000  0.000  0.000  0.000  0.000  0.000  0.000  0.000  0.000
   39  0.000  0.000  0.000  0.000  0.000  0.000  0.000  0.000  0.000  0.000
   40  0.000  0.000  0.000  0.000  0.000  0.000  0.000  0.000  0.000  0.000
   41  0.000  0.000  0.000  0.000  0.000  0.000  0.000  0.000  0.000  0.000
   42  0.000  0.000  0.000  0.000  0.000  0.000  0.000  0.000  0.000  0.000
   43  0.000  0.000  0.000  0.000  0.000  0.000  0.000  0.000  0.000  0.000
   44  0.000  0.000  0.000  0.000  0.000  0.000  0.000  0.000  0.000  0.000
   45  0.782  0.000  0.010  0.018  0.000  0.000  0.000  0.000  0.000  0.809
   46  0.000  0.000  0.000  0.000  0.000  0.000  0.000  0.000  0.000  0.000
   47  0.000  0.000  0.000  0.000  0.000  0.000  0.000  0.000  0.000  0.000
tot    0.833  0.001  0.021  0.038  0.000  0.000  0.000  0.000  0.000  0.893
 
band     4 # energy  -21.39413568 # occ.  1.00000000
 
ion      s     py     pz     px    dxy    dyz    dz2    dxz  x2-y2    tot
    1  0.002  0.000  0.000  0.000  0.000  0.000  0.000  0.000  0.000  0.003
    2  0.016  0.000  0.001  0.001  0.000  0.000  0.000  0.000  0.000  0.019
    3  0.024  0.000  0.001  0.001  0.000  0.000  0.000  0.000  0.000  0.026
    4  0.025  0.000  0.000  0.001  0.000  0.000  0.000  0.000  0.000  0.026
    5  0.037  0.000  0.002  0.003  0.000  0.000  0.000  0.000  0.000  0.042
    6  0.022  0.002  0.001  0.000  0.000  0.000  0.000  0.000  0.000  0.025
    7  0.018  0.000  0.001  0.002  0.000  0.000  0.000  0.000  0.000  0.021
    8  0.042  0.002  0.002  0.000  0.000  0.000  0.000  0.000  0.000  0.046
    9  0.035  0.001  0.000  0.001  0.000  0.000  0.000  0.000  0.000  0.036
   10  0.057  0.001  0.000  0.002  0.000  0.000  0.000  0.000  0.000  0.060
   11  0.018  0.001  0.001  0.000  0.000  0.000  0.000  0.000  0.000  0.019
   12  0.022  0.001  0.001  0.000  0.000  0.000  0.000  0.000  0.000  0.024
   13  0.004  0.000  0.000  0.000  0.000  0.000  0.000  0.000  0.000  0.004
   14  0.024  0.003  0.002  0.000  0.000  0.000  0.000  0.000  0.000  0.029
   15  0.000  0.000  0.000  0.000  0.000  0.000  0.000  0.000  0.000  0.000
   16  0.031  0.000  0.001  0.001  0.000  0.000  0.000  0.000  0.000  0.034
   17  0.019  0.001  0.000  0.001  0.000  0.000  0.000  0.000  0.000  0.021
   18  0.053  0.003  0.002  0.000  0.000  0.000  0.000  0.000  0.000  0.058
   19  0.006  0.000  0.000  0.000  0.000  0.000  0.000  0.000  0.000  0.006
   20  0.025  0.001  0.000  0.002  0.000  0.000  0.000  0.000  0.000  0.028
   21  0.042  0.000  0.003  0.006  0.000  0.000  0.000  0.000  0.000  0.051
   22  0.045  0.003  0.000  0.002  0.000  0.000  0.000  0.000  0.000  0.050
   23  0.008  0.001  0.000  0.001  0.000  0.000  0.000  0.000  0.000  0.009
   24  0.001  0.000  0.000  0.000  0.000  0.000  0.000  0.000  0.000  0.001
   25  0.002  0.000  0.000  0.000  0.000  0.000  0.000  0.000  0.000  0.002
   26  0.001  0.000  0.000  0.000  0.000  0.000  0.000  0.000  0.000  0.001
   27  0.001  0.000  0.000  0.000  0.000  0.000  0.000  0.000  0.000  0.001
   28  0.000  0.000  0.000  0.000  0.000  0.000  0.000  0.000  0.000  0.000
   29  0.000  0.000  0.000  0.000  0.000  0.000  0.000  0.000  0.000  0.000
   30  0.000  0.000  0.000  0.000  0.000  0.000  0.000  0.000  0.000  0.000
   31  0.002  0.000  0.000  0.000  0.000  0.000  0.000  0.000  0.000  0.002
   32  0.001  0.000  0.000  0.000  0.000  0.000  0.000  0.000  0.000  0.001
   33  0.003  0.000  0.000  0.000  0.000  0.000  0.000  0.000  0.000  0.003
   34  0.001  0.000  0.000  0.000  0.000  0.000  0.000  0.000  0.000  0.001
   35  0.000  0.000  0.000  0.000  0.000  0.000  0.000  0.000  0.000  0.001
   36  0.000  0.000  0.000  0.000  0.000  0.000  0.000  0.000  0.000  0.001
   37  0.001  0.000  0.000  0.000  0.000  0.000  0.000  0.000  0.000  0.001
   38  0.002  0.000  0.000  0.000  0.000  0.000  0.000  0.000  0.000  0.002
   39  0.001  0.000  0.000  0.000  0.000  0.000  0.000  0.000  0.000  0.001
   40  0.001  0.000  0.000  0.000  0.000  0.000  0.000  0.000  0.000  0.001
   41  0.001  0.000  0.000  0.000  0.000  0.000  0.000  0.000  0.000  0.001
   42  0.000  0.000  0.000  0.000  0.000  0.000  0.000  0.000  0.000  0.000
   43  0.000  0.000  0.000  0.000  0.000  0.000  0.000  0.000  0.000  0.000
   44  0.000  0.000  0.000  0.000  0.000  0.000  0.000  0.000  0.000  0.000
   45  0.003  0.000  0.000  0.000  0.000  0.000  0.000  0.000  0.000  0.003
   46  0.004  0.001  0.000  0.000  0.000  0.000  0.000  0.000  0.000  0.004
   47  0.006  0.000  0.001  0.001  0.000  0.000  0.000  0.000  0.000  0.008
tot    0.606  0.021  0.020  0.026  0.000  0.000  0.000  0.000  0.000  0.674
 
band     5 # energy  -21.35184223 # occ.  1.00000000
 
ion      s     py     pz     px    dxy    dyz    dz2    dxz  x2-y2    tot
    1  0.000  0.000  0.000  0.000  0.000  0.000  0.000  0.000  0.000  0.002
    2  0.001  0.000  0.000  0.000  0.000  0.000  0.000  0.000  0.000  0.002
    3  0.045  0.000  0.002  0.002  0.000  0.000  0.000  0.000  0.000  0.049
    4  0.002  0.000  0.000  0.000  0.000  0.000  0.000  0.000  0.000  0.002
    5  0.030  0.000  0.002  0.003  0.000  0.000  0.000  0.000  0.000  0.035
    6  0.039  0.003  0.002  0.000  0.000  0.000  0.000  0.000  0.000  0.045
    7  0.002  0.000  0.000  0.000  0.000  0.000  0.000  0.000  0.000  0.002
    8  0.035  0.002  0.002  0.000  0.000  0.000  0.000  0.000  0.000  0.038
    9  0.064  0.002  0.000  0.001  0.000  0.000  0.000  0.000  0.000  0.067
   10  0.051  0.001  0.000  0.002  0.000  0.000  0.000  0.000  0.000  0.053
   11  0.002  0.000  0.000  0.000  0.000  0.000  0.000  0.000  0.000  0.002
   12  0.002  0.000  0.000  0.000  0.000  0.000  0.000  0.000  0.000  0.002
   13  0.000  0.000  0.000  0.000  0.000  0.000  0.000  0.000  0.000  0.000
   14  0.048  0.006  0.003  0.000  0.000  0.000  0.000  0.000  0.000  0.058
   15  0.000  0.000  0.000  0.000  0.000  0.000  0.000  0.000  0.000  0.000
   16  0.061  0.000  0.003  0.003  0.000  0.000  0.000  0.000  0.000  0.066
   17  0.002  0.000  0.000  0.000  0.000  0.000  0.000  0.000  0.000  0.002
   18  0.048  0.002  0.002  0.000  0.000  0.000  0.000  0.000  0.000  0.053
   19  0.009  0.001  0.000  0.001  0.000  0.000  0.000  0.000  0.000  0.010
   20  0.050  0.002  0.000  0.003  0.000  0.000  0.000  0.000  0.000  0.055
   21  0.039  0.000  0.003  0.005  0.000  0.000  0.000  0.000  0.000  0.047
   22  0.040  0.002  0.000  0.002  0.000  0.000  0.000  0.000  0.000  0.044
   23  0.007  0.000  0.000  0.001  0.000  0.000  0.000  0.000  0.000  0.008
   24  0.002  0.000  0.000  0.000  0.000  0.000  0.000  0.000  0.000  0.002
   25  0.001  0.000  0.000  0.000  0.000  0.000  0.000  0.000  0.000  0.002
   26  0.000  0.000  0.000  0.000  0.000  0.000  0.000  0.000  0.000  0.000
   27  0.000  0.000  0.000  0.000  0.000  0.000  0.000  0.000  0.000  0.000
   28  0.000  0.000  0.000  0.000  0.000  0.000  0.000  0.000  0.000  0.000
   29  0.000  0.000  0.000  0.000  0.000  0.000  0.000  0.000  0.000  0.000
   30  0.000  0.000  0.000  0.000  0.000  0.000  0.000  0.000  0.000  0.000
   31  0.003  0.000  0.000  0.000  0.000  0.000  0.000  0.000  0.000  0.003
   32  0.000  0.000  0.000  0.000  0.000  0.000  0.000  0.000  0.000  0.000
   33  0.002  0.000  0.000  0.000  0.000  0.000  0.000  0.000  0.000  0.003
   34  0.001  0.000  0.000  0.000  0.000  0.000  0.000  0.000  0.000  0.001
   35  0.001  0.000  0.000  0.000  0.000  0.000  0.000  0.000  0.000  0.001
   36  0.001  0.000  0.000  0.000  0.000  0.000  0.000  0.000  0.000  0.001
   37  0.002  0.000  0.000  0.000  0.000  0.000  0.000  0.000  0.000  0.002
   38  0.002  0.000  0.000  0.000  0.000  0.000  0.000  0.000  0.000  0.002
   39  0.001  0.000  0.000  0.000  0.000  0.000  0.000  0.000  0.000  0.001
   40  0.001  0.000  0.000  0.000  0.000  0.000  0.000  0.000  0.000  0.001
   41  0.001  0.000  0.000  0.000  0.000  0.000  0.000  0.000  0.000  0.001
   42  0.000  0.000  0.000  0.000  0.000  0.000  0.000  0.000  0.000  0.000
   43  0.000  0.000  0.000  0.000  0.000  0.000  0.000  0.000  0.000  0.000
   44  0.000  0.000  0.000  0.000  0.000  0.000  0.000  0.000  0.000  0.000
   45  0.000  0.000  0.000  0.000  0.000  0.000  0.000  0.000  0.000  0.000
   46  0.007  0.001  0.001  0.000  0.000  0.000  0.000  0.000  0.000  0.009
   47  0.006  0.000  0.001  0.001  0.000  0.000  0.000  0.000  0.000  0.007
tot    0.605  0.026  0.021  0.024  0.000  0.000  0.000  0.000  0.000  0.678
 
band     6 # energy  -21.34170516 # occ.  1.00000000
 
ion      s     py     pz     px    dxy    dyz    dz2    dxz  x2-y2    tot
    1  0.000  0.000  0.000  0.001  0.000  0.000  0.000  0.000  0.000  0.002
    2  0.055  0.000  0.003  0.005  0.000  0.000  0.000  0.000  0.000  0.063
    3  0.012  0.000  0.001  0.001  0.000  0.000  0.000  0.000  0.000  0.013
    4  0.087  0.001  0.000  0.003  0.000  0.000  0.000  0.000  0.000  0.092
    5  0.005  0.000  0.000  0.000  0.000  0.000  0.000  0.000  0.000  0.006
    6  0.011  0.001  0.001  0.000  0.000  0.000  0.000  0.000  0.000  0.013
    7  0.068  0.000  0.005  0.009  0.000  0.000  0.000  0.000  0.000  0.082
    8  0.006  0.000  0.000  0.000  0.000  0.000  0.000  0.000  0.000  0.007
    9  0.020  0.001  0.000  0.000  0.000  0.000  0.000  0.000  0.000  0.021
   10  0.008  0.000  0.000  0.000  0.000  0.000  0.000  0.000  0.000  0.008
   11  0.065  0.003  0.004  0.000  0.000  0.000  0.000  0.000  0.000  0.071
   12  0.084  0.003  0.004  0.000  0.000  0.000  0.000  0.000  0.000  0.091
   13  0.012  0.001  0.000  0.001  0.000  0.000  0.000  0.000  0.000  0.013
   14  0.014  0.002  0.001  0.000  0.000  0.000  0.000  0.000  0.000  0.017
   15  0.000  0.000  0.000  0.000  0.000  0.000  0.000  0.000  0.000  0.000
   16  0.018  0.000  0.001  0.001  0.000  0.000  0.000  0.000  0.000  0.020
   17  0.072  0.003  0.000  0.005  0.000  0.000  0.000  0.000  0.000  0.080
   18  0.008  0.000  0.000  0.000  0.000  0.000  0.000  0.000  0.000  0.009
   19  0.003  0.000  0.000  0.000  0.000  0.000  0.000  0.000  0.000  0.003
   20  0.014  0.001  0.000  0.001  0.000  0.000  0.000  0.000  0.000  0.016
   21  0.006  0.000  0.000  0.001  0.000  0.000  0.000  0.000  0.000  0.008
   22  0.007  0.000  0.000  0.000  0.000  0.000  0.000  0.000  0.000  0.008
   23  0.001  0.000  0.000  0.000  0.000  0.000  0.000  0.000  0.000  0.001
   24  0.000  0.000  0.000  0.000  0.000  0.000  0.000  0.000  0.000  0.000
   25  0.000  0.000  0.000  0.000  0.000  0.000  0.000  0.000  0.000  0.000
   26  0.003  0.000  0.000  0.000  0.000  0.000  0.000  0.000  0.000  0.003
   27  0.004  0.000  0.000  0.000  0.000  0.000  0.000  0.000  0.000  0.004
   28  0.001  0.000  0.000  0.000  0.000  0.000  0.000  0.000  0.000  0.001
   29  0.001  0.000  0.000  0.000  0.000  0.000  0.000  0.000  0.000  0.001
   30  0.001  0.000  0.000  0.000  0.000  0.000  0.000  0.000  0.000  0.001
   31  0.001  0.000  0.000  0.000  0.000  0.000  0.000  0.000  0.000  0.001
   32  0.003  0.000  0.000  0.000  0.000  0.000  0.000  0.000  0.000  0.003
   33  0.000  0.000  0.000  0.000  0.000  0.000  0.000  0.000  0.000  0.000
   34  0.000  0.000  0.000  0.000  0.000  0.000  0.000  0.000  0.000  0.000
   35  0.000  0.000  0.000  0.000  0.000  0.000  0.000  0.000  0.000  0.000
   36  0.000  0.000  0.000  0.000  0.000  0.000  0.000  0.000  0.000  0.000
   37  0.001  0.000  0.000  0.000  0.000  0.000  0.000  0.000  0.000  0.001
   38  0.000  0.000  0.000  0.000  0.000  0.000  0.000  0.000  0.000  0.000
   39  0.000  0.000  0.000  0.000  0.000  0.000  0.000  0.000  0.000  0.000
   40  0.000  0.000  0.000  0.000  0.000  0.000  0.000  0.000  0.000  0.000
   41  0.000  0.000  0.000  0.000  0.000  0.000  0.000  0.000  0.000  0.000
   42  0.000  0.000  0.000  0.000  0.000  0.000  0.000  0.000  0.000  0.000
   43  0.000  0.000  0.000  0.000  0.000  0.000  0.000  0.000  0.000  0.000
   44  0.000  0.000  0.000  0.000  0.000  0.000  0.000  0.000  0.000  0.000
   45  0.010  0.000  0.001  0.002  0.000  0.000  0.000  0.000  0.000  0.012
   46  0.002  0.000  0.000  0.000  0.000  0.000  0.000  0.000  0.000  0.003
   47  0.001  0.000  0.000  0.000  0.000  0.000  0.000  0.000  0.000  0.001
tot    0.605  0.018  0.023  0.031  0.000  0.000  0.000  0.000  0.000  0.678
 
band     7 # energy  -19.26732053 # occ.  1.00000000
 
ion      s     py     pz     px    dxy    dyz    dz2    dxz  x2-y2    tot
    1  0.000  0.000  0.000  0.000  0.000  0.000  0.000  0.000  0.000  0.001
    2  0.000  0.000  0.000  0.000  0.000  0.000  0.000  0.000  0.000  0.000
    3  0.042  0.003  0.002  0.000  0.000  0.000  0.000  0.000  0.000  0.047
    4  0.001  0.000  0.000  0.000  0.000  0.000  0.000  0.000  0.000  0.001
    5  0.001  0.005  0.001  0.001  0.000  0.000  0.000  0.000  0.000  0.007
    6  0.001  0.001  0.001  0.007  0.000  0.000  0.000  0.000  0.000  0.011
    7  0.001  0.000  0.000  0.000  0.000  0.000  0.000  0.000  0.000  0.001
    8  0.031  0.000  0.001  0.002  0.000  0.000  0.000  0.000  0.000  0.033
    9  0.084  0.001  0.000  0.003  0.000  0.000  0.000  0.000  0.000  0.088
   10  0.057  0.002  0.000  0.000  0.000  0.000  0.000  0.000  0.000  0.059
   11  0.000  0.000  0.000  0.000  0.000  0.000  0.000  0.000  0.000  0.001
   12  0.000  0.000  0.000  0.000  0.000  0.000  0.000  0.000  0.000  0.000
   13  0.001  0.000  0.000  0.000  0.000  0.000  0.000  0.000  0.000  0.001
   14  0.019  0.000  0.004  0.007  0.000  0.000  0.000  0.000  0.000  0.029
   15  0.000  0.000  0.000  0.000  0.000  0.000  0.000  0.000  0.000  0.000
   16  0.015  0.006  0.001  0.002  0.000  0.000  0.000  0.000  0.000  0.023
   17  0.001  0.000  0.000  0.000  0.000  0.000  0.000  0.000  0.000  0.002
   18  0.014  0.001  0.001  0.004  0.000  0.000  0.000  0.000  0.000  0.019
   19  0.079  0.002  0.000  0.002  0.000  0.000  0.000  0.000  0.000  0.083
   20  0.082  0.001  0.000  0.001  0.000  0.000  0.000  0.000  0.000  0.084
   21  0.009  0.005  0.002  0.000  0.000  0.000  0.000  0.000  0.000  0.016
   22  0.051  0.000  0.000  0.001  0.000  0.000  0.000  0.000  0.000  0.052
   23  0.049  0.001  0.000  0.001  0.000  0.000  0.000  0.000  0.000  0.051
   24  0.004  0.000  0.000  0.000  0.000  0.000  0.000  0.000  0.000  0.004
   25  0.004  0.000  0.000  0.000  0.000  0.000  0.000  0.000  0.000  0.004
   26  0.000  0.000  0.000  0.000  0.000  0.000  0.000  0.000  0.000  0.000
   27  0.000  0.000  0.000  0.000  0.000  0.000  0.000  0.000  0.000  0.000
   28  0.000  0.000  0.000  0.000  0.000  0.000  0.000  0.000  0.000  0.000
   29  0.000  0.000  0.000  0.000  0.000  0.000  0.000  0.000  0.000  0.000
   30  0.000  0.000  0.000  0.000  0.000  0.000  0.000  0.000  0.000  0.000
   31  0.002  0.000  0.000  0.000  0.000  0.000  0.000  0.000  0.000  0.003
   32  0.000  0.000  0.000  0.000  0.000  0.000  0.000  0.000  0.000  0.000
   33  0.002  0.000  0.000  0.000  0.000  0.000  0.000  0.000  0.000  0.002
   34  0.009  0.001  0.000  0.000  0.000  0.000  0.000  0.000  0.000  0.010
   35  0.009  0.000  0.001  0.000  0.000  0.000  0.000  0.000  0.000  0.010
   36  0.009  0.000  0.000  0.001  0.000  0.000  0.000  0.000  0.000  0.010
   37  0.007  0.000  0.000  0.000  0.000  0.000  0.000  0.000  0.000  0.008
   38  0.005  0.000  0.000  0.000  0.000  0.000  0.000  0.000  0.000  0.005
   39  0.005  0.000  0.000  0.000  0.000  0.000  0.000  0.000  0.000  0.006
   40  0.006  0.000  0.000  0.000  0.000  0.000  0.000  0.000  0.000  0.006
   41  0.005  0.000  0.000  0.001  0.000  0.000  0.000  0.000  0.000  0.006
   42  0.000  0.000  0.000  0.000  0.000  0.000  0.000  0.000  0.000  0.000
   43  0.000  0.000  0.000  0.000  0.000  0.000  0.000  0.000  0.000  0.000
   44  0.000  0.000  0.000  0.000  0.000  0.000  0.000  0.000  0.000  0.000
   45  0.000  0.000  0.000  0.000  0.000  0.000  0.000  0.000  0.000  0.000
   46  0.003  0.001  0.001  0.000  0.000  0.000  0.000  0.000  0.000  0.005
   47  0.001  0.000  0.001  0.000  0.000  0.000  0.000  0.000  0.000  0.002
tot    0.609  0.032  0.017  0.033  0.000  0.000  0.000  0.000  0.000  0.691
 
band     8 # energy  -19.23645527 # occ.  1.00000000
 
ion      s     py     pz     px    dxy    dyz    dz2    dxz  x2-y2    tot
    1  0.000  0.000  0.000  0.000  0.000  0.000  0.000  0.000  0.000  0.001
    2  0.000  0.001  0.000  0.000  0.000  0.000  0.000  0.000  0.000  0.002
    3  0.024  0.002  0.001  0.000  0.000  0.000  0.000  0.000  0.000  0.027
    4  0.014  0.000  0.000  0.000  0.000  0.000  0.000  0.000  0.000  0.014
    5  0.002  0.007  0.001  0.001  0.000  0.000  0.000  0.000  0.000  0.011
    6  0.001  0.001  0.001  0.004  0.000  0.000  0.000  0.000  0.000  0.006
    7  0.002  0.001  0.001  0.000  0.000  0.000  0.000  0.000  0.000  0.004
    8  0.037  0.000  0.002  0.003  0.000  0.000  0.000  0.000  0.000  0.043
    9  0.047  0.000  0.000  0.001  0.000  0.000  0.000  0.000  0.000  0.049
   10  0.083  0.002  0.000  0.001  0.000  0.000  0.000  0.000  0.000  0.087
   11  0.007  0.000  0.000  0.000  0.000  0.000  0.000  0.000  0.000  0.008
   12  0.003  0.000  0.000  0.001  0.000  0.000  0.000  0.000  0.000  0.004
   13  0.012  0.000  0.000  0.000  0.000  0.000  0.000  0.000  0.000  0.012
   14  0.009  0.000  0.002  0.004  0.000  0.000  0.000  0.000  0.000  0.015
   15  0.000  0.000  0.000  0.000  0.000  0.000  0.000  0.000  0.000  0.000
   16  0.010  0.003  0.000  0.001  0.000  0.000  0.000  0.000  0.000  0.014
   17  0.012  0.000  0.000  0.000  0.000  0.000  0.000  0.000  0.000  0.012
   18  0.015  0.001  0.001  0.006  0.000  0.000  0.000  0.000  0.000  0.023
   19  0.042  0.001  0.000  0.001  0.000  0.000  0.000  0.000  0.000  0.044
   20  0.045  0.001  0.000  0.000  0.000  0.000  0.000  0.000  0.000  0.046
   21  0.018  0.007  0.004  0.000  0.000  0.000  0.000  0.000  0.000  0.029
   22  0.081  0.001  0.000  0.001  0.000  0.000  0.000  0.000  0.000  0.083
   23  0.075  0.002  0.000  0.002  0.000  0.000  0.000  0.000  0.000  0.078
   24  0.002  0.000  0.000  0.000  0.000  0.000  0.000  0.000  0.000  0.003
   25  0.003  0.000  0.000  0.000  0.000  0.000  0.000  0.000  0.000  0.004
   26  0.001  0.000  0.000  0.000  0.000  0.000  0.000  0.000  0.000  0.001
   27  0.000  0.000  0.000  0.000  0.000  0.000  0.000  0.000  0.000  0.001
   28  0.001  0.000  0.000  0.000  0.000  0.000  0.000  0.000  0.000  0.002
   29  0.001  0.000  0.000  0.000  0.000  0.000  0.000  0.000  0.000  0.002
   30  0.001  0.000  0.000  0.000  0.000  0.000  0.000  0.000  0.000  0.001
   31  0.002  0.000  0.000  0.000  0.000  0.000  0.000  0.000  0.000  0.002
   32  0.001  0.000  0.000  0.000  0.000  0.000  0.000  0.000  0.000  0.001
   33  0.002  0.000  0.000  0.000  0.000  0.000  0.000  0.000  0.000  0.003
   34  0.004  0.000  0.000  0.000  0.000  0.000  0.000  0.000  0.000  0.005
   35  0.005  0.000  0.000  0.000  0.000  0.000  0.000  0.000  0.000  0.005
   36  0.005  0.000  0.000  0.000  0.000  0.000  0.000  0.000  0.000  0.005
   37  0.004  0.000  0.000  0.000  0.000  0.000  0.000  0.000  0.000  0.005
   38  0.007  0.000  0.000  0.000  0.000  0.000  0.000  0.000  0.000  0.008
   39  0.008  0.000  0.000  0.000  0.000  0.000  0.000  0.000  0.000  0.009
   40  0.009  0.000  0.001  0.000  0.000  0.000  0.000  0.000  0.000  0.010
   41  0.008  0.000  0.000  0.001  0.000  0.000  0.000  0.000  0.000  0.009
   42  0.000  0.000  0.000  0.000  0.000  0.000  0.000  0.000  0.000  0.000